MODEL 1
REMARK VINA RESULT:      -6.9      0.000      0.000
REMARK  7 active torsions:
REMARK  status: ('A' for Active; 'I' for Inactive)
REMARK    1  A    between atoms: O_5  and  C_30 
REMARK       I    between atoms: N_7  and  C_27 
REMARK    2  A    between atoms: N_7  and  CA_28 
REMARK    3  A    between atoms: C_21  and  C_23 
REMARK    4  A    between atoms: C_23  and  C_26 
REMARK    5  A    between atoms: C_26  and  C_27 
REMARK    6  A    between atoms: CA_28  and  C_29 
REMARK    7  A    between atoms: CA_28  and  C_30 
ROOT
HETATM    1  O   UNL     1      13.176  13.747   4.729  1.00  0.00    -0.313 OA
HETATM    2  O   UNL     1       9.633  12.594   1.669  1.00  0.00    -0.274 OA
HETATM    3  O   UNL     1       7.951  12.053   0.246  1.00  0.00    -0.259 OA
HETATM    4  C   UNL     1      12.877  12.002   6.137  1.00  0.00    -0.015 A 
HETATM    5  C   UNL     1      13.148  11.166   7.336  1.00  0.00     0.042 C 
HETATM    6  C   UNL     1      13.601  13.140   5.862  1.00  0.00     0.061 A 
HETATM    7  C   UNL     1      14.533  11.498   7.935  1.00  0.00     0.005 C 
HETATM    8  C   UNL     1      14.741  13.695   6.624  1.00  0.00     0.066 C 
HETATM    9  C   UNL     1      14.796  13.018   8.009  1.00  0.00     0.007 C 
HETATM   10  C   UNL     1      11.918  11.893   5.099  1.00  0.00     0.008 A 
HETATM   11  C   UNL     1      12.143  12.984   4.263  1.00  0.00     0.095 A 
HETATM   12  C   UNL     1      11.402  13.243   3.115  1.00  0.00     0.008 A 
HETATM   13  C   UNL     1      10.882  10.994   4.769  1.00  0.00     0.029 A 
HETATM   14  C   UNL     1      10.101  11.204   3.613  1.00  0.00     0.006 A 
HETATM   15  C   UNL     1      10.384  12.323   2.829  1.00  0.00     0.099 A 
HETATM   16  C   UNL     1       9.000  10.305   3.203  1.00  0.00    -0.037 A 
HETATM   17  C   UNL     1       8.268  10.603   2.108  1.00  0.00     0.025 A 
HETATM   18  C   UNL     1      11.666  14.419   2.238  1.00  0.00     0.054 C 
HETATM   19  C   UNL     1       8.582  11.791   1.265  1.00  0.00     0.295 A 
HETATM   20  C   UNL     1       8.771   9.075   4.047  1.00  0.00     0.050 C 
ENDROOT
BRANCH  17  21
HETATM   21  C   UNL     1       7.081   9.809   1.622  1.00  0.00     0.055 C 
BRANCH  21  22
HETATM   22  C   UNL     1       5.912   9.861   2.594  1.00  0.00     0.108 C 
BRANCH  22  23
HETATM   23  C   UNL     1       5.044  11.101   2.448  1.00  0.00     0.218 C 
HETATM   24  O   UNL     1       4.992  11.772   1.421  1.00  0.00    -0.274 OA
HETATM   25  N   UNL     1       4.344  11.374   3.615  1.00  0.00    -0.347 N 
HETATM   26  H   UNL     1       4.443  10.749   4.410  1.00  0.00     0.163 HD
BRANCH  25  27
HETATM   27  CA  UNL     1       3.458  12.508   3.746  1.00  0.00     0.182 C 
BRANCH  27  28
HETATM   28  C   UNL     1       2.114  12.255   3.054  1.00  0.00     0.032 C 
HETATM   29  C   UNL     1       1.746  13.289   1.995  1.00  0.00     0.007 C 
ENDBRANCH  27  28
BRANCH  27  30
HETATM   30  C   UNL     1       3.279  12.927   5.194  1.00  0.00     0.163 C 
HETATM   31  OXT UNL     1       3.512  14.055   5.609  1.00  0.00    -0.648 OA
BRANCH  30  32
HETATM   32  O   UNL     1       2.824  11.929   5.989  1.00  0.00    -0.775 OA
HETATM   33  H   UNL     1       2.247  11.305   5.499  1.00  0.00     0.167 HD
ENDBRANCH  30  32
ENDBRANCH  27  30
ENDBRANCH  25  27
ENDBRANCH  22  23
ENDBRANCH  21  22
ENDBRANCH  17  21
TORSDOF 7
ENDMDL
MODEL 2
REMARK VINA RESULT:      -6.8      6.464     10.054
REMARK  7 active torsions:
REMARK  status: ('A' for Active; 'I' for Inactive)
REMARK    1  A    between atoms: O_5  and  C_30 
REMARK       I    between atoms: N_7  and  C_27 
REMARK    2  A    between atoms: N_7  and  CA_28 
REMARK    3  A    between atoms: C_21  and  C_23 
REMARK    4  A    between atoms: C_23  and  C_26 
REMARK    5  A    between atoms: C_26  and  C_27 
REMARK    6  A    between atoms: CA_28  and  C_29 
REMARK    7  A    between atoms: CA_28  and  C_30 
ROOT
HETATM    1  O   UNL     1      12.356  19.126   0.505  1.00  0.00    -0.313 OA
HETATM    2  O   UNL     1      15.532  17.671   3.827  1.00  0.00    -0.274 OA
HETATM    3  O   UNL     1      17.033  16.969   5.378  1.00  0.00    -0.259 OA
HETATM    4  C   UNL     1      11.114  17.236   0.491  1.00  0.00    -0.015 A 
HETATM    5  C   UNL     1      10.013  16.340   0.048  1.00  0.00     0.042 C 
HETATM    6  C   UNL     1      11.288  18.495  -0.037  1.00  0.00     0.061 A 
HETATM    7  C   UNL     1       8.928  17.138  -0.708  1.00  0.00     0.005 C 
HETATM    8  C   UNL     1      10.448  19.179  -1.044  1.00  0.00     0.066 C 
HETATM    9  C   UNL     1       9.528  18.141  -1.718  1.00  0.00     0.007 C 
HETATM   10  C   UNL     1      12.162  17.062   1.431  1.00  0.00     0.008 A 
HETATM   11  C   UNL     1      12.894  18.246   1.402  1.00  0.00     0.095 A 
HETATM   12  C   UNL     1      14.017  18.480   2.188  1.00  0.00     0.008 A 
HETATM   13  C   UNL     1      12.577  16.034   2.304  1.00  0.00     0.029 A 
HETATM   14  C   UNL     1      13.707  16.218   3.129  1.00  0.00     0.006 A 
HETATM   15  C   UNL     1      14.390  17.431   3.040  1.00  0.00     0.099 A 
HETATM   16  C   UNL     1      14.201  15.188   4.070  1.00  0.00    -0.037 A 
HETATM   17  C   UNL     1      15.319  15.423   4.790  1.00  0.00     0.025 A 
HETATM   18  C   UNL     1      14.779  19.759   2.137  1.00  0.00     0.054 C 
HETATM   19  C   UNL     1      16.038  16.726   4.702  1.00  0.00     0.295 A 
HETATM   20  C   UNL     1      13.394  13.917   4.178  1.00  0.00     0.050 C 
ENDROOT
BRANCH  17  21
HETATM   21  C   UNL     1      15.962  14.436   5.731  1.00  0.00     0.055 C 
BRANCH  21  22
HETATM   22  C   UNL     1      15.321  14.448   7.110  1.00  0.00     0.108 C 
BRANCH  22  23
HETATM   23  C   UNL     1      14.732  13.108   7.527  1.00  0.00     0.218 C 
HETATM   24  O   UNL     1      13.607  12.985   8.004  1.00  0.00    -0.274 OA
HETATM   25  N   UNL     1      15.626  12.069   7.313  1.00  0.00    -0.347 N 
HETATM   26  H   UNL     1      16.530  12.272   6.898  1.00  0.00     0.163 HD
BRANCH  25  27
HETATM   27  CA  UNL     1      15.318  10.695   7.638  1.00  0.00     0.182 C 
BRANCH  27  28
HETATM   28  C   UNL     1      14.818   9.924   6.411  1.00  0.00     0.032 C 
HETATM   29  C   UNL     1      13.300   9.876   6.271  1.00  0.00     0.007 C 
ENDBRANCH  27  28
BRANCH  27  30
HETATM   30  C   UNL     1      16.483   9.994   8.312  1.00  0.00     0.163 C 
HETATM   31  OXT UNL     1      17.656  10.292   8.125  1.00  0.00    -0.648 OA
BRANCH  30  32
HETATM   32  O   UNL     1      16.099   9.006   9.154  1.00  0.00    -0.775 OA
HETATM   33  H   UNL     1      16.810   8.345   9.293  1.00  0.00     0.167 HD
ENDBRANCH  30  32
ENDBRANCH  27  30
ENDBRANCH  25  27
ENDBRANCH  22  23
ENDBRANCH  21  22
ENDBRANCH  17  21
TORSDOF 7
ENDMDL
MODEL 3
REMARK VINA RESULT:      -6.7      1.858      2.998
REMARK  7 active torsions:
REMARK  status: ('A' for Active; 'I' for Inactive)
REMARK    1  A    between atoms: O_5  and  C_30 
REMARK       I    between atoms: N_7  and  C_27 
REMARK    2  A    between atoms: N_7  and  CA_28 
REMARK    3  A    between atoms: C_21  and  C_23 
REMARK    4  A    between atoms: C_23  and  C_26 
REMARK    5  A    between atoms: C_26  and  C_27 
REMARK    6  A    between atoms: CA_28  and  C_29 
REMARK    7  A    between atoms: CA_28  and  C_30 
ROOT
HETATM    1  O   UNL     1      12.443  10.416   6.787  1.00  0.00    -0.313 OA
HETATM    2  O   UNL     1       8.734   9.240   3.940  1.00  0.00    -0.274 OA
HETATM    3  O   UNL     1       7.002   8.687   2.582  1.00  0.00    -0.259 OA
HETATM    4  C   UNL     1      12.920  12.387   5.786  1.00  0.00    -0.015 A 
HETATM    5  C   UNL     1      13.674  13.650   5.570  1.00  0.00     0.042 C 
HETATM    6  C   UNL     1      13.256  11.498   6.782  1.00  0.00     0.061 A 
HETATM    7  C   UNL     1      14.538  13.991   6.804  1.00  0.00     0.005 C 
HETATM    8  C   UNL     1      14.328  11.631   7.791  1.00  0.00     0.066 C 
HETATM    9  C   UNL     1      15.287  12.760   7.359  1.00  0.00     0.007 C 
HETATM   10  C   UNL     1      11.814  11.813   5.110  1.00  0.00     0.008 A 
HETATM   11  C   UNL     1      11.561  10.607   5.761  1.00  0.00     0.095 A 
HETATM   12  C   UNL     1      10.544   9.732   5.397  1.00  0.00     0.008 A 
HETATM   13  C   UNL     1      10.996  12.174   4.019  1.00  0.00     0.029 A 
HETATM   14  C   UNL     1       9.945  11.326   3.609  1.00  0.00     0.006 A 
HETATM   15  C   UNL     1       9.758  10.133   4.308  1.00  0.00     0.099 A 
HETATM   16  C   UNL     1       9.046  11.639   2.476  1.00  0.00    -0.037 A 
HETATM   17  C   UNL     1       8.094  10.751   2.116  1.00  0.00     0.025 A 
HETATM   18  C   UNL     1      10.296   8.449   6.113  1.00  0.00     0.054 C 
HETATM   19  C   UNL     1       7.887   9.485   2.873  1.00  0.00     0.295 A 
HETATM   20  C   UNL     1       9.247  12.968   1.790  1.00  0.00     0.050 C 
ENDROOT
BRANCH  17  21
HETATM   21  C   UNL     1       7.160  10.918   0.943  1.00  0.00     0.055 C 
BRANCH  21  22
HETATM   22  C   UNL     1       6.058  11.929   1.219  1.00  0.00     0.108 C 
BRANCH  22  23
HETATM   23  C   UNL     1       4.828  11.332   1.887  1.00  0.00     0.218 C 
HETATM   24  O   UNL     1       4.286  10.298   1.505  1.00  0.00    -0.274 OA
HETATM   25  N   UNL     1       4.401  12.108   2.956  1.00  0.00    -0.347 N 
HETATM   26  H   UNL     1       4.927  12.941   3.204  1.00  0.00     0.163 HD
BRANCH  25  27
HETATM   27  CA  UNL     1       3.244  11.770   3.752  1.00  0.00     0.182 C 
BRANCH  27  28
HETATM   28  C   UNL     1       3.413  12.216   5.209  1.00  0.00     0.032 C 
HETATM   29  C   UNL     1       3.082  11.142   6.239  1.00  0.00     0.007 C 
ENDBRANCH  27  28
BRANCH  27  30
HETATM   30  C   UNL     1       1.958  12.300   3.143  1.00  0.00     0.163 C 
HETATM   31  OXT UNL     1       1.296  11.689   2.314  1.00  0.00    -0.648 OA
BRANCH  30  32
HETATM   32  O   UNL     1       1.605  13.520   3.614  1.00  0.00    -0.775 OA
HETATM   33  H   UNL     1       2.024  13.714   4.479  1.00  0.00     0.167 HD
ENDBRANCH  30  32
ENDBRANCH  27  30
ENDBRANCH  25  27
ENDBRANCH  22  23
ENDBRANCH  21  22
ENDBRANCH  17  21
TORSDOF 7
ENDMDL
MODEL 4
REMARK VINA RESULT:      -6.4      3.460      4.924
REMARK  7 active torsions:
REMARK  status: ('A' for Active; 'I' for Inactive)
REMARK    1  A    between atoms: O_5  and  C_30 
REMARK       I    between atoms: N_7  and  C_27 
REMARK    2  A    between atoms: N_7  and  CA_28 
REMARK    3  A    between atoms: C_21  and  C_23 
REMARK    4  A    between atoms: C_23  and  C_26 
REMARK    5  A    between atoms: C_26  and  C_27 
REMARK    6  A    between atoms: CA_28  and  C_29 
REMARK    7  A    between atoms: CA_28  and  C_30 
ROOT
HETATM    1  O   UNL     1      11.685  17.938  -0.361  1.00  0.00    -0.313 OA
HETATM    2  O   UNL     1       8.668  14.244  -1.066  1.00  0.00    -0.274 OA
HETATM    3  O   UNL     1       7.237  12.511  -1.379  1.00  0.00    -0.259 OA
HETATM    4  C   UNL     1      12.406  17.294   1.684  1.00  0.00    -0.015 A 
HETATM    5  C   UNL     1      13.189  17.407   2.943  1.00  0.00     0.042 C 
HETATM    6  C   UNL     1      12.490  18.238   0.685  1.00  0.00     0.061 A 
HETATM    7  C   UNL     1      14.340  18.425   2.783  1.00  0.00     0.005 C 
HETATM    8  C   UNL     1      13.346  19.443   0.647  1.00  0.00     0.066 C 
HETATM    9  C   UNL     1      13.891  19.716   2.064  1.00  0.00     0.007 C 
HETATM   10  C   UNL     1      11.469  16.331   1.230  1.00  0.00     0.008 A 
HETATM   11  C   UNL     1      11.057  16.771  -0.026  1.00  0.00     0.095 A 
HETATM   12  C   UNL     1      10.129  16.098  -0.813  1.00  0.00     0.008 A 
HETATM   13  C   UNL     1      10.919  15.136   1.739  1.00  0.00     0.029 A 
HETATM   14  C   UNL     1       9.978  14.409   0.980  1.00  0.00     0.006 A 
HETATM   15  C   UNL     1       9.612  14.916  -0.266  1.00  0.00     0.099 A 
HETATM   16  C   UNL     1       9.360  13.148   1.448  1.00  0.00    -0.037 A 
HETATM   17  C   UNL     1       8.429  12.537   0.682  1.00  0.00     0.025 A 
HETATM   18  C   UNL     1       9.708  16.592  -2.155  1.00  0.00     0.054 C 
HETATM   19  C   UNL     1       8.051  13.075  -0.655  1.00  0.00     0.295 A 
HETATM   20  C   UNL     1       9.832  12.605   2.774  1.00  0.00     0.050 C 
ENDROOT
BRANCH  17  21
HETATM   21  C   UNL     1       7.678  11.289   1.071  1.00  0.00     0.055 C 
BRANCH  21  22
HETATM   22  C   UNL     1       6.569  11.568   2.074  1.00  0.00     0.108 C 
BRANCH  22  23
HETATM   23  C   UNL     1       5.169  11.470   1.487  1.00  0.00     0.218 C 
HETATM   24  O   UNL     1       4.935  11.023   0.367  1.00  0.00    -0.274 OA
HETATM   25  N   UNL     1       4.212  11.956   2.367  1.00  0.00    -0.347 N 
HETATM   26  H   UNL     1       4.504  12.292   3.280  1.00  0.00     0.163 HD
BRANCH  25  27
HETATM   27  CA  UNL     1       2.803  11.990   2.047  1.00  0.00     0.182 C 
BRANCH  27  28
HETATM   28  C   UNL     1       1.972  11.227   3.085  1.00  0.00     0.032 C 
HETATM   29  C   UNL     1       2.740  10.834   4.342  1.00  0.00     0.007 C 
ENDBRANCH  27  28
BRANCH  27  30
HETATM   30  C   UNL     1       2.298  13.407   1.847  1.00  0.00     0.163 C 
HETATM   31  OXT UNL     1       2.002  14.160   2.766  1.00  0.00    -0.648 OA
BRANCH  30  32
HETATM   32  O   UNL     1       2.213  13.767   0.544  1.00  0.00    -0.775 OA
HETATM   33  H   UNL     1       1.703  14.595   0.424  1.00  0.00     0.167 HD
ENDBRANCH  30  32
ENDBRANCH  27  30
ENDBRANCH  25  27
ENDBRANCH  22  23
ENDBRANCH  21  22
ENDBRANCH  17  21
TORSDOF 7
ENDMDL
MODEL 5
REMARK VINA RESULT:      -6.4      3.660      5.148
REMARK  7 active torsions:
REMARK  status: ('A' for Active; 'I' for Inactive)
REMARK    1  A    between atoms: O_5  and  C_30 
REMARK       I    between atoms: N_7  and  C_27 
REMARK    2  A    between atoms: N_7  and  CA_28 
REMARK    3  A    between atoms: C_21  and  C_23 
REMARK    4  A    between atoms: C_23  and  C_26 
REMARK    5  A    between atoms: C_26  and  C_27 
REMARK    6  A    between atoms: CA_28  and  C_29 
REMARK    7  A    between atoms: CA_28  and  C_30 
ROOT
HETATM    1  O   UNL     1      13.171  19.170   1.497  1.00  0.00    -0.313 OA
HETATM    2  O   UNL     1       9.909  16.286  -0.574  1.00  0.00    -0.274 OA
HETATM    3  O   UNL     1       8.363  14.926  -1.529  1.00  0.00    -0.259 OA
HETATM    4  C   UNL     1      13.918  17.666   3.012  1.00  0.00    -0.015 A 
HETATM    5  C   UNL     1      14.747  17.184   4.148  1.00  0.00     0.042 C 
HETATM    6  C   UNL     1      14.027  18.948   2.521  1.00  0.00     0.061 A 
HETATM    7  C   UNL     1      15.953  18.120   4.383  1.00  0.00     0.005 C 
HETATM    8  C   UNL     1      14.955  20.011   2.963  1.00  0.00     0.066 C 
HETATM    9  C   UNL     1      15.562  19.613   4.324  1.00  0.00     0.007 C 
HETATM   10  C   UNL     1      12.908  17.039   2.238  1.00  0.00     0.008 A 
HETATM   11  C   UNL     1      12.483  18.001   1.325  1.00  0.00     0.095 A 
HETATM   12  C   UNL     1      11.490  17.780   0.377  1.00  0.00     0.008 A 
HETATM   13  C   UNL     1      12.302  15.766   2.206  1.00  0.00     0.029 A 
HETATM   14  C   UNL     1      11.293  15.484   1.261  1.00  0.00     0.006 A 
HETATM   15  C   UNL     1      10.918  16.501   0.383  1.00  0.00     0.099 A 
HETATM   16  C   UNL     1      10.614  14.172   1.167  1.00  0.00    -0.037 A 
HETATM   17  C   UNL     1       9.623  13.998   0.266  1.00  0.00     0.025 A 
HETATM   18  C   UNL     1      11.056  18.829  -0.589  1.00  0.00     0.054 C 
HETATM   19  C   UNL     1       9.235  15.082  -0.680  1.00  0.00     0.295 A 
HETATM   20  C   UNL     1      11.095  13.084   2.095  1.00  0.00     0.050 C 
ENDROOT
BRANCH  17  21
HETATM   21  C   UNL     1       8.809  12.737   0.114  1.00  0.00     0.055 C 
BRANCH  21  22
HETATM   22  C   UNL     1       7.725  12.616   1.174  1.00  0.00     0.108 C 
BRANCH  22  23
HETATM   23  C   UNL     1       6.516  11.807   0.730  1.00  0.00     0.218 C 
HETATM   24  O   UNL     1       6.600  10.763   0.088  1.00  0.00    -0.274 OA
HETATM   25  N   UNL     1       5.328  12.405   1.128  1.00  0.00    -0.347 N 
HETATM   26  H   UNL     1       5.363  13.263   1.670  1.00  0.00     0.163 HD
BRANCH  25  27
HETATM   27  CA  UNL     1       4.032  11.846   0.819  1.00  0.00     0.182 C 
BRANCH  27  28
HETATM   28  C   UNL     1       3.564  10.875   1.908  1.00  0.00     0.032 C 
HETATM   29  C   UNL     1       3.844  11.341   3.333  1.00  0.00     0.007 C 
ENDBRANCH  27  28
BRANCH  27  30
HETATM   30  C   UNL     1       2.999  12.923   0.538  1.00  0.00     0.163 C 
HETATM   31  OXT UNL     1       1.798  12.705   0.443  1.00  0.00    -0.648 OA
BRANCH  30  32
HETATM   32  O   UNL     1       3.536  14.160   0.412  1.00  0.00    -0.775 OA
HETATM   33  H   UNL     1       3.466  14.677   1.242  1.00  0.00     0.167 HD
ENDBRANCH  30  32
ENDBRANCH  27  30
ENDBRANCH  25  27
ENDBRANCH  22  23
ENDBRANCH  21  22
ENDBRANCH  17  21
TORSDOF 7
ENDMDL
MODEL 6
REMARK VINA RESULT:      -6.4      1.687      2.286
REMARK  7 active torsions:
REMARK  status: ('A' for Active; 'I' for Inactive)
REMARK    1  A    between atoms: O_5  and  C_30 
REMARK       I    between atoms: N_7  and  C_27 
REMARK    2  A    between atoms: N_7  and  CA_28 
REMARK    3  A    between atoms: C_21  and  C_23 
REMARK    4  A    between atoms: C_23  and  C_26 
REMARK    5  A    between atoms: C_26  and  C_27 
REMARK    6  A    between atoms: CA_28  and  C_29 
REMARK    7  A    between atoms: CA_28  and  C_30 
ROOT
HETATM    1  O   UNL     1      12.680  13.262   4.820  1.00  0.00    -0.313 OA
HETATM    2  O   UNL     1       9.092  11.028   2.502  1.00  0.00    -0.274 OA
HETATM    3  O   UNL     1       7.391   9.977   1.429  1.00  0.00    -0.259 OA
HETATM    4  C   UNL     1      13.006  11.666   6.389  1.00  0.00    -0.015 A 
HETATM    5  C   UNL     1      13.637  11.051   7.587  1.00  0.00     0.042 C 
HETATM    6  C   UNL     1      13.397  12.895   5.908  1.00  0.00     0.061 A 
HETATM    7  C   UNL     1      14.979  11.741   7.915  1.00  0.00     0.005 C 
HETATM    8  C   UNL     1      14.476  13.767   6.421  1.00  0.00     0.066 C 
HETATM    9  C   UNL     1      14.889  13.280   7.825  1.00  0.00     0.007 C 
HETATM   10  C   UNL     1      11.956  11.234   5.539  1.00  0.00     0.008 A 
HETATM   11  C   UNL     1      11.795  12.245   4.596  1.00  0.00     0.095 A 
HETATM   12  C   UNL     1      10.854  12.205   3.573  1.00  0.00     0.008 A 
HETATM   13  C   UNL     1      11.120  10.100   5.461  1.00  0.00     0.029 A 
HETATM   14  C   UNL     1      10.151  10.003   4.440  1.00  0.00     0.006 A 
HETATM   15  C   UNL     1      10.048  11.060   3.535  1.00  0.00     0.099 A 
HETATM   16  C   UNL     1       9.241   8.846   4.293  1.00  0.00    -0.037 A 
HETATM   17  C   UNL     1       8.307   8.851   3.318  1.00  0.00     0.025 A 
HETATM   18  C   UNL     1      10.706  13.303   2.576  1.00  0.00     0.054 C 
HETATM   19  C   UNL     1       8.208   9.975   2.344  1.00  0.00     0.295 A 
HETATM   20  C   UNL     1       9.430   7.699   5.256  1.00  0.00     0.050 C 
ENDROOT
BRANCH  17  21
HETATM   21  C   UNL     1       7.279   7.768   3.102  1.00  0.00     0.055 C 
BRANCH  21  22
HETATM   22  C   UNL     1       6.081   7.915   4.028  1.00  0.00     0.108 C 
BRANCH  22  23
HETATM   23  C   UNL     1       4.875   8.574   3.376  1.00  0.00     0.218 C 
HETATM   24  O   UNL     1       3.995   7.947   2.792  1.00  0.00    -0.274 OA
HETATM   25  N   UNL     1       4.910   9.954   3.516  1.00  0.00    -0.347 N 
HETATM   26  H   UNL     1       5.675  10.380   4.031  1.00  0.00     0.163 HD
BRANCH  25  27
HETATM   27  CA  UNL     1       3.889  10.820   2.974  1.00  0.00     0.182 C 
BRANCH  27  28
HETATM   28  C   UNL     1       3.504  11.926   3.963  1.00  0.00     0.032 C 
HETATM   29  C   UNL     1       2.436  12.886   3.451  1.00  0.00     0.007 C 
ENDBRANCH  27  28
BRANCH  27  30
HETATM   30  C   UNL     1       4.279  11.383   1.619  1.00  0.00     0.163 C 
HETATM   31  OXT UNL     1       3.642  11.185   0.591  1.00  0.00    -0.648 OA
BRANCH  30  32
HETATM   32  O   UNL     1       5.402  12.139   1.656  1.00  0.00    -0.775 OA
HETATM   33  H   UNL     1       5.893  12.026   2.497  1.00  0.00     0.167 HD
ENDBRANCH  30  32
ENDBRANCH  27  30
ENDBRANCH  25  27
ENDBRANCH  22  23
ENDBRANCH  21  22
ENDBRANCH  17  21
TORSDOF 7
ENDMDL
MODEL 7
REMARK VINA RESULT:      -6.3      6.112      9.643
REMARK  7 active torsions:
REMARK  status: ('A' for Active; 'I' for Inactive)
REMARK    1  A    between atoms: O_5  and  C_30 
REMARK       I    between atoms: N_7  and  C_27 
REMARK    2  A    between atoms: N_7  and  CA_28 
REMARK    3  A    between atoms: C_21  and  C_23 
REMARK    4  A    between atoms: C_23  and  C_26 
REMARK    5  A    between atoms: C_26  and  C_27 
REMARK    6  A    between atoms: CA_28  and  C_29 
REMARK    7  A    between atoms: CA_28  and  C_30 
ROOT
HETATM    1  O   UNL     1      12.345  19.121   0.554  1.00  0.00    -0.313 OA
HETATM    2  O   UNL     1      15.411  17.582   3.941  1.00  0.00    -0.274 OA
HETATM    3  O   UNL     1      16.860  16.840   5.522  1.00  0.00    -0.259 OA
HETATM    4  C   UNL     1      11.062  17.259   0.502  1.00  0.00    -0.015 A 
HETATM    5  C   UNL     1       9.952  16.390   0.030  1.00  0.00     0.042 C 
HETATM    6  C   UNL     1      11.275  18.517  -0.015  1.00  0.00     0.061 A 
HETATM    7  C   UNL     1       8.903  17.215  -0.747  1.00  0.00     0.005 C 
HETATM    8  C   UNL     1      10.474  19.223  -1.037  1.00  0.00     0.066 C 
HETATM    9  C   UNL     1       9.548  18.208  -1.738  1.00  0.00     0.007 C 
HETATM   10  C   UNL     1      12.083  17.058   1.465  1.00  0.00     0.008 A 
HETATM   11  C   UNL     1      12.842  18.226   1.459  1.00  0.00     0.095 A 
HETATM   12  C   UNL     1      13.952  18.431   2.271  1.00  0.00     0.008 A 
HETATM   13  C   UNL     1      12.456  16.018   2.343  1.00  0.00     0.029 A 
HETATM   14  C   UNL     1      13.570  16.173   3.195  1.00  0.00     0.006 A 
HETATM   15  C   UNL     1      14.282  17.371   3.126  1.00  0.00     0.099 A 
HETATM   16  C   UNL     1      14.019  15.128   4.141  1.00  0.00    -0.037 A 
HETATM   17  C   UNL     1      15.125  15.335   4.888  1.00  0.00     0.025 A 
HETATM   18  C   UNL     1      14.743  19.693   2.244  1.00  0.00     0.054 C 
HETATM   19  C   UNL     1      15.876  16.622   4.823  1.00  0.00     0.295 A 
HETATM   20  C   UNL     1      13.182  13.875   4.225  1.00  0.00     0.050 C 
ENDROOT
BRANCH  17  21
HETATM   21  C   UNL     1      15.725  14.329   5.838  1.00  0.00     0.055 C 
BRANCH  21  22
HETATM   22  C   UNL     1      16.598  13.308   5.125  1.00  0.00     0.108 C 
BRANCH  22  23
HETATM   23  C   UNL     1      16.013  11.903   5.108  1.00  0.00     0.218 C 
HETATM   24  O   UNL     1      16.324  11.052   4.279  1.00  0.00    -0.274 OA
HETATM   25  N   UNL     1      15.089  11.723   6.127  1.00  0.00    -0.347 N 
HETATM   26  H   UNL     1      14.910  12.485   6.774  1.00  0.00     0.163 HD
BRANCH  25  27
HETATM   27  CA  UNL     1      14.377  10.481   6.323  1.00  0.00     0.182 C 
BRANCH  27  28
HETATM   28  C   UNL     1      15.163   9.516   7.217  1.00  0.00     0.032 C 
HETATM   29  C   UNL     1      16.132  10.195   8.179  1.00  0.00     0.007 C 
ENDBRANCH  27  28
BRANCH  27  30
HETATM   30  C   UNL     1      12.967  10.709   6.838  1.00  0.00     0.163 C 
HETATM   31  OXT UNL     1      11.965  10.252   6.300  1.00  0.00    -0.648 OA
BRANCH  30  32
HETATM   32  O   UNL     1      12.921  11.462   7.962  1.00  0.00    -0.775 OA
HETATM   33  H   UNL     1      13.155  12.398   7.787  1.00  0.00     0.167 HD
ENDBRANCH  30  32
ENDBRANCH  27  30
ENDBRANCH  25  27
ENDBRANCH  22  23
ENDBRANCH  21  22
ENDBRANCH  17  21
TORSDOF 7
ENDMDL
MODEL 8
REMARK VINA RESULT:      -6.2      1.890      2.548
REMARK  7 active torsions:
REMARK  status: ('A' for Active; 'I' for Inactive)
REMARK    1  A    between atoms: O_5  and  C_30 
REMARK       I    between atoms: N_7  and  C_27 
REMARK    2  A    between atoms: N_7  and  CA_28 
REMARK    3  A    between atoms: C_21  and  C_23 
REMARK    4  A    between atoms: C_23  and  C_26 
REMARK    5  A    between atoms: C_26  and  C_27 
REMARK    6  A    between atoms: CA_28  and  C_29 
REMARK    7  A    between atoms: CA_28  and  C_30 
ROOT
HETATM    1  O   UNL     1      12.574  13.630   3.897  1.00  0.00    -0.313 OA
HETATM    2  O   UNL     1       9.494  14.035   0.210  1.00  0.00    -0.274 OA
HETATM    3  O   UNL     1       8.027  14.229  -1.510  1.00  0.00    -0.259 OA
HETATM    4  C   UNL     1      11.585  11.840   4.863  1.00  0.00    -0.015 A 
HETATM    5  C   UNL     1      11.405  10.781   5.891  1.00  0.00     0.042 C 
HETATM    6  C   UNL     1      12.612  12.754   4.928  1.00  0.00     0.061 A 
HETATM    7  C   UNL     1      12.691  10.606   6.728  1.00  0.00     0.005 C 
HETATM    8  C   UNL     1      13.691  12.834   5.936  1.00  0.00     0.066 C 
HETATM    9  C   UNL     1      13.312  11.957   7.147  1.00  0.00     0.007 C 
HETATM   10  C   UNL     1      10.841  12.175   3.702  1.00  0.00     0.008 A 
HETATM   11  C   UNL     1      11.488  13.276   3.147  1.00  0.00     0.095 A 
HETATM   12  C   UNL     1      11.065  13.915   1.986  1.00  0.00     0.008 A 
HETATM   13  C   UNL     1       9.692  11.672   3.057  1.00  0.00     0.029 A 
HETATM   14  C   UNL     1       9.221  12.277   1.873  1.00  0.00     0.006 A 
HETATM   15  C   UNL     1       9.920  13.380   1.381  1.00  0.00     0.099 A 
HETATM   16  C   UNL     1       8.025  11.805   1.141  1.00  0.00    -0.037 A 
HETATM   17  C   UNL     1       7.611  12.470   0.040  1.00  0.00     0.025 A 
HETATM   18  C   UNL     1      11.778  15.092   1.414  1.00  0.00     0.054 C 
HETATM   19  C   UNL     1       8.368  13.639  -0.491  1.00  0.00     0.295 A 
HETATM   20  C   UNL     1       7.338  10.572   1.675  1.00  0.00     0.050 C 
ENDROOT
BRANCH  17  21
HETATM   21  C   UNL     1       6.375  12.133  -0.756  1.00  0.00     0.055 C 
BRANCH  21  22
HETATM   22  C   UNL     1       5.189  13.011  -0.382  1.00  0.00     0.108 C 
BRANCH  22  23
HETATM   23  C   UNL     1       4.086  12.273   0.360  1.00  0.00     0.218 C 
HETATM   24  O   UNL     1       3.209  11.624  -0.204  1.00  0.00    -0.274 OA
HETATM   25  N   UNL     1       4.195  12.441   1.734  1.00  0.00    -0.347 N 
HETATM   26  H   UNL     1       4.967  12.986   2.106  1.00  0.00     0.163 HD
BRANCH  25  27
HETATM   27  CA  UNL     1       3.262  11.854   2.668  1.00  0.00     0.182 C 
BRANCH  27  28
HETATM   28  C   UNL     1       1.860  12.453   2.514  1.00  0.00     0.032 C 
HETATM   29  C   UNL     1       1.779  13.950   2.796  1.00  0.00     0.007 C 
ENDBRANCH  27  28
BRANCH  27  30
HETATM   30  C   UNL     1       3.244  10.339   2.580  1.00  0.00     0.163 C 
HETATM   31  OXT UNL     1       4.141   9.622   3.007  1.00  0.00    -0.648 OA
BRANCH  30  32
HETATM   32  O   UNL     1       2.128   9.850   1.989  1.00  0.00    -0.775 OA
HETATM   33  H   UNL     1       1.523   9.431   2.637  1.00  0.00     0.167 HD
ENDBRANCH  30  32
ENDBRANCH  27  30
ENDBRANCH  25  27
ENDBRANCH  22  23
ENDBRANCH  21  22
ENDBRANCH  17  21
TORSDOF 7
ENDMDL
MODEL 9
REMARK VINA RESULT:      -6.2      7.175     10.181
REMARK  7 active torsions:
REMARK  status: ('A' for Active; 'I' for Inactive)
REMARK    1  A    between atoms: O_5  and  C_30 
REMARK       I    between atoms: N_7  and  C_27 
REMARK    2  A    between atoms: N_7  and  CA_28 
REMARK    3  A    between atoms: C_21  and  C_23 
REMARK    4  A    between atoms: C_23  and  C_26 
REMARK    5  A    between atoms: C_26  and  C_27 
REMARK    6  A    between atoms: CA_28  and  C_29 
REMARK    7  A    between atoms: CA_28  and  C_30 
ROOT
HETATM    1  O   UNL     1       1.312   4.205  10.314  1.00  0.00    -0.313 OA
HETATM    2  O   UNL     1       1.262   5.243   5.606  1.00  0.00    -0.274 OA
HETATM    3  O   UNL     1       1.262   5.731   3.390  1.00  0.00    -0.259 OA
HETATM    4  C   UNL     1       2.511   6.009  10.963  1.00  0.00    -0.015 A 
HETATM    5  C   UNL     1       3.213   6.894  11.929  1.00  0.00     0.042 C 
HETATM    6  C   UNL     1       1.871   4.857  11.360  1.00  0.00     0.061 A 
HETATM    7  C   UNL     1       2.776   6.581  13.377  1.00  0.00     0.005 C 
HETATM    8  C   UNL     1       1.725   4.329  12.734  1.00  0.00     0.066 C 
HETATM    9  C   UNL     1       2.714   5.064  13.661  1.00  0.00     0.007 C 
HETATM   10  C   UNL     1       2.346   6.079   9.556  1.00  0.00     0.008 A 
HETATM   11  C   UNL     1       1.605   4.952   9.208  1.00  0.00     0.095 A 
HETATM   12  C   UNL     1       1.228   4.648   7.905  1.00  0.00     0.008 A 
HETATM   13  C   UNL     1       2.740   6.968   8.534  1.00  0.00     0.029 A 
HETATM   14  C   UNL     1       2.380   6.712   7.194  1.00  0.00     0.006 A 
HETATM   15  C   UNL     1       1.641   5.560   6.924  1.00  0.00     0.099 A 
HETATM   16  C   UNL     1       2.755   7.599   6.070  1.00  0.00    -0.037 A 
HETATM   17  C   UNL     1       2.414   7.258   4.809  1.00  0.00     0.025 A 
HETATM   18  C   UNL     1       0.433   3.434   7.562  1.00  0.00     0.054 C 
HETATM   19  C   UNL     1       1.612   6.034   4.526  1.00  0.00     0.295 A 
HETATM   20  C   UNL     1       3.500   8.865   6.416  1.00  0.00     0.050 C 
ENDROOT
BRANCH  17  21
HETATM   21  C   UNL     1       2.791   8.037   3.573  1.00  0.00     0.055 C 
BRANCH  21  22
HETATM   22  C   UNL     1       1.775   9.118   3.238  1.00  0.00     0.108 C 
BRANCH  22  23
HETATM   23  C   UNL     1       2.396  10.469   2.918  1.00  0.00     0.218 C 
HETATM   24  O   UNL     1       2.995  10.707   1.872  1.00  0.00    -0.274 OA
HETATM   25  N   UNL     1       2.210  11.374   3.953  1.00  0.00    -0.347 N 
HETATM   26  H   UNL     1       1.686  11.086   4.775  1.00  0.00     0.163 HD
BRANCH  25  27
HETATM   27  CA  UNL     1       2.716  12.727   3.908  1.00  0.00     0.182 C 
BRANCH  27  28
HETATM   28  C   UNL     1       1.737  13.671   3.203  1.00  0.00     0.032 C 
HETATM   29  C   UNL     1       2.114  14.011   1.764  1.00  0.00     0.007 C 
ENDBRANCH  27  28
BRANCH  27  30
HETATM   30  C   UNL     1       3.103  13.237   5.285  1.00  0.00     0.163 C 
HETATM   31  OXT UNL     1       3.707  14.285   5.476  1.00  0.00    -0.648 OA
BRANCH  30  32
HETATM   32  O   UNL     1       2.706  12.421   6.290  1.00  0.00    -0.775 OA
HETATM   33  H   UNL     1       3.142  11.544   6.244  1.00  0.00     0.167 HD
ENDBRANCH  30  32
ENDBRANCH  27  30
ENDBRANCH  25  27
ENDBRANCH  22  23
ENDBRANCH  21  22
ENDBRANCH  17  21
TORSDOF 7
ENDMDL
